# File exported by Houdini 18.5.408 (www.sidefx.com)
# 880 points
# 5268 vertices
# 1756 primitives
# Bounds: [-1.06630731, -1.41050577, -0.968581319] to [1.06630731, 0.565339267, 1.33019078]
g 
v 0.245846778 -0.170623899 0.309433579
v 0.928659141 0.50180614 -0.487551987
v 0.939851701 0.479428023 -0.461518526
v 0.243738443 -0.205477089 0.302110583
v 0.790725172 0.445568442 -0.504004061
v 0.0430811271 -0.422796458 0.922089934
v 0.152920201 -0.349670053 1.16357982
v 0.468445778 0.0466572605 -0.106286541
v 0.255524695 -0.182517737 0.620841682
v 0.527299941 -1.13604462 0.28233692
v 0.231942758 -0.258910239 0.579840064
v -8.43621406e-18 0.480661362 0.0688869134
v 0.0711226687 -0.110483401 1.29562473
v 0.533283651 -0.205112964 0.184829786
v 0.347499609 0.186713487 -0.299560428
v 0.752903223 -0.871567369 -0.344178319
v 0.707290947 0.382421464 -0.354362309
v 0.252833098 -0.217269152 0.347841442
v 0.250287563 -0.163322449 0.354241818
v 0.20073092 -0.128172725 0.350484341
v 0.200101927 -0.147349566 0.294263989
v 0.19175978 -0.19659999 0.285104126
v 0.867614806 0.516710877 -0.495879859
v 0.876505911 0.502134681 -0.447516024
v 0.913317263 0.434078485 -0.445712239
v 0.896506071 0.440973848 -0.493982077
v 0.84809798 0.465958416 -0.511113763
v 0.866143823 0.458243996 -0.438860536
v 0.189756498 -0.22055015 0.337363809
v 0.793642998 0.490446001 -0.496535122
v 0.822327733 0.412907124 -0.497465849
v 0.693996072 0.414948523 -0.460604787
v 0.689877152 0.478972375 -0.447427005
v 0.731929362 0.346547365 -0.453676671
v 0.063228488 -0.408234328 0.870185673
v -1.05303493e-16 -0.416543633 0.859868288
v -1.13733364e-16 -0.432609171 0.928703368
v -1.22947256e-16 -0.451031357 1.00394046
v 0.0691215694 -0.430563122 0.966806054
v 0.119464532 -0.403462082 0.906762838
v 0.16254662 -0.337896913 1.09692514
v 0.209716558 -0.289683461 1.12093234
v 0.185990229 -0.310161293 1.20354867
v 0.105832294 -0.3185817 1.24035621
v 0.0906607062 -0.359303951 1.17742801
v 0.0911099985 -0.347517878 1.08243227
v 0.458685458 0.015531145 -0.209413618
v 0.509844363 0.0743842274 -0.211554319
v 0.516948283 0.11029201 -0.148710996
v 0.477994919 0.201643735 -0.157007039
v 0.417733073 0.169773996 -0.0650063008
v 0.427104443 0.15074411 0.0644350648
v 0.483102739 0.0146291479 0.0405583046
v 0.532818019 -0.124789543 0.00868913997
v 0.504558086 -0.10305021 -0.128843576
v 0.352196038 -0.140706182 0.664955974
v 0.307275921 -0.160627067 0.782061875
v 0.245725468 -0.207197547 0.745583296
v 0.146197632 -0.186126292 0.730951905
v 0.134037659 -0.144613862 0.626380086
v 0.209410593 -0.147560239 0.512399256
v 0.255014896 -0.180437177 0.496683598
v 0.28086549 -0.198524803 0.574934423
v 0.597118258 -1.15279377 0.333860993
v 0.481122643 -1.21135855 0.419882596
v 0.425492704 -1.16141856 0.313301682
v 0.404376179 -1.10786617 0.194561765
v 0.550463319 -1.09293067 0.195738956
v 0.663363218 -1.09246826 0.230147198
v 0.333693177 -0.260214955 0.64486748
v 0.344113946 -0.235955298 0.617734909
v 0.275330603 -0.224590927 0.577211499
v 0.222074926 -0.294363171 0.660790861
v 0.313630879 -0.295672417 0.696196198
v 0.129630744 -0.283617795 0.535517335
v 0.132799059 -0.31983915 0.617144763
v 0.25149563 -0.224273592 0.489292741
v 0.200627401 -0.24532637 0.478544295
v 0.247935653 0.495398134 0.0015453815
v 0.186989725 0.504395843 -0.0603449643
v -2.05937406e-19 0.482667893 0.00168160652
v 0.238126904 0.423586249 0.104619771
v 0.331831247 0.425506473 0.00612414442
v -2.80490957e-17 0.471910924 0.229038253
v 0.208374918 0.414797276 0.23573342
v 0.088981986 -0.165072292 1.2724185
v 0.163167223 -0.145814896 1.25379825
v 0.106107101 -0.0675841644 1.28279388
v -1.6290139e-16 -0.0858957991 1.33019078
v -1.6169859e-16 -0.152491897 1.32036924
v -1.60466792e-16 -0.00349584967 1.31031084
v 0.510817647 -0.0127923414 0.193704486
v 0.515105128 -0.0349994823 0.345122099
v 0.511221647 -0.186639875 0.353913546
v 0.596105814 -0.339406818 0.0899777263
v 0.58445555 -0.27409035 -0.0448345803
v 0.50900352 -0.326657385 0.396068424
v 0.5332219 -0.372658998 0.284062088
v 0.569118559 -0.442210823 0.190023273
v 0.315995693 0.324062496 -0.278941125
v 0.449659258 0.360255003 -0.327248782
v 0.497135818 0.244542092 -0.33246544
v 0.56402415 0.164426818 -0.303709894
v 0.458419561 0.110973582 -0.275155127
v 0.407399327 0.0291247144 -0.282592148
v 0.299883753 0.0656459108 -0.345512897
v 0.164846748 0.199128717 -0.327054352
v 0.163212642 0.307374805 -0.266651571
v 0.154946685 0.0912500694 -0.389860749
v 0.648923695 -0.857427299 -0.423973083
v 0.713326156 -0.822490931 -0.517151058
v 0.839713633 -0.852732182 -0.375629842
v 0.87974298 -0.886733472 -0.243061334
v 0.752060652 -0.900924206 -0.249215797
v 0.59774667 -0.900031209 -0.304644138
v 0.727146566 0.444718987 -0.372041017
v 0.630779028 0.445322454 -0.302497476
v 0.645627022 0.354096144 -0.307917058
v 0.685005367 0.273032248 -0.302582651
v 0.75161171 0.348841846 -0.371585697
v 0.790925801 0.423657179 -0.411378533
v 0.408750802 -0.104603432 0.588806212
v 0.395112813 -0.19690755 0.562439263
v 0.458100736 -0.18724528 0.481866777
v 0.472465187 -0.0629918203 0.483052254
v 0.434175789 0.083400175 0.484377891
v 0.383693814 0.031958133 0.598341525
v 0.343144745 -0.017363824 0.705501556
v 0.293487906 0.170294166 0.600757658
v 0.266558409 0.111709878 0.721203744
v 0.243004113 0.050533969 0.844598591
v 0.304389596 -0.0705803707 0.815833688
v 0.216621354 -0.015368633 0.968621552
v 0.26458931 -0.127096176 0.934379697
v 0.261928201 -0.207661331 0.900955796
v 0.209305823 -0.252150983 0.866135716
v 0.233311027 -0.181000441 1.05331528
v 0.225834608 -0.257082582 1.02047193
v 0.180327669 -0.304438919 0.987823963
v 0.105462566 -0.298325777 0.968100548
v 0.122936413 -0.237484008 0.848815143
v -1.04094314e-16 -0.217809081 0.8499946
v -9.05029028e-17 -0.159054607 0.739012301
v -1.18257023e-16 -0.280885339 0.965641856
v -1.32742437e-16 -0.336014628 1.08392429
v -1.45526666e-16 -0.354939193 1.18831539
v -1.54589495e-16 -0.319521129 1.26231909
v 0.113016866 -0.24780032 1.25880277
v -1.59076798e-16 -0.249761075 1.29896057
v 0.193480477 -0.236752093 1.2256999
v 0.218238503 -0.214293599 1.15174389
v 0.180563107 -0.119746529 1.18076587
v 0.189457819 -0.0791876242 1.09003687
v 0.111951008 0.0139002278 1.12018752
v 0.112233497 -0.0268549547 1.21071541
v -1.38588712e-16 0.0647671521 1.13166261
v -1.51047309e-16 0.0335429609 1.23339486
v 0.127710238 0.0807907581 0.994585395
v -1.23077514e-16 0.125887409 1.00500417
v 0.140940472 0.148549646 0.867959976
v -1.07606821e-16 0.19114241 0.878676355
v 0.152674749 0.212045491 0.742937744
v -9.22445879e-17 0.251282007 0.753234267
v 0.169900268 0.285181701 0.626032591
v -7.78926535e-17 0.327144086 0.63604176
v 0.190247118 0.354233414 0.505174875
v -6.25163652e-17 0.393621951 0.510484874
v 0.201927111 0.396232784 0.371516526
v -4.59508426e-17 0.442080885 0.37521708
v 0.344674259 0.262675226 0.354042232
v 0.351586878 0.278969944 0.21838133
v 0.325885594 0.225434422 0.482484698
v 0.466606498 0.122638404 0.352677107
v 0.454748929 0.140997827 0.210095078
v 0.36122331 0.294249505 0.0867412537
v 0.363958061 0.300820053 -0.0366327316
v 0.421394289 0.321274012 -0.164600179
v 0.414564371 0.449328989 -0.111367926
v 0.532515883 0.33230859 -0.237412572
v 0.514996111 0.436437815 -0.221504256
v 0.507360816 0.513784409 -0.206524059
v 0.395510197 0.509450793 -0.0937678516
v 0.478766024 0.565339267 -0.23412317
v 0.336434692 0.547699511 -0.13075085
v 0.445135474 0.53654176 -0.275834769
v 0.305554658 0.517341733 -0.183590114
v 0.165703148 0.480035603 -0.11632967
v 0.301410437 0.44661662 -0.232802942
v 0.158369422 0.41415745 -0.200486436
v 2.55270055e-17 0.417960495 -0.208443806
v 1.21949095e-17 0.469529182 -0.0995789915
v 3.53077809e-17 0.319854438 -0.288309902
v 4.31534236e-17 0.211028352 -0.352374434
v 5.06946043e-17 0.104827389 -0.413952857
v 0.148179173 -0.0156577528 -0.471929908
v 6.09149038e-17 0.000265836716 -0.497407913
v 0.149623871 -0.12731114 -0.562480032
v 7.2552885e-17 -0.109438829 -0.592439234
v 0.160795286 -0.246691555 -0.648552656
v 8.38382954e-17 -0.23154512 -0.684591591
v 0.17574127 -0.372668236 -0.7206375
v 9.13336436e-17 -0.365760684 -0.745795786
v 0.197210848 -0.477218658 -0.816396058
v 1.0253897e-16 -0.473565191 -0.837294221
v 0.209971875 -0.572903633 -0.910346031
v 1.14156721e-16 -0.571879327 -0.932160318
v 0.210489437 -0.651088536 -0.949890137
v 1.18616998e-16 -0.656097293 -0.968581319
v 0.20882836 -0.722394705 -0.945652604
v 1.17957636e-16 -0.731271148 -0.963197231
v 0.202010885 -0.767876267 -0.890198231
v 1.10761297e-16 -0.776442885 -0.904434621
v 0.19049257 -0.789085031 -0.810794294
v 1.00531058e-16 -0.794297516 -0.820898414
v 0.177836403 -0.815039992 -0.701585352
v 8.62029666e-17 -0.819331884 -0.703900635
v 0.164459616 -0.854715466 -0.552798629
v 6.7785413e-17 -0.857907653 -0.553509891
v 0.15442726 -0.900926948 -0.39704904
v 4.88511297e-17 -0.903367758 -0.398899734
v 0.147441834 -0.951295614 -0.243148431
v 3.0022517e-17 -0.952938557 -0.245152444
v 0.141924545 -1.00518882 -0.0931410342
v 1.15480204e-17 -1.00697505 -0.0942967385
v 0.137766838 -1.06338561 0.0555781536
v -6.81608281e-18 -1.06537604 0.0556575395
v 0.136409849 -1.12714839 0.205780953
v -2.53432059e-17 -1.12942791 0.20694299
v 0.140946046 -1.19538283 0.356770426
v -4.35978744e-17 -1.19623113 0.356003672
v 0.151915878 -1.26468956 0.502174973
v -6.19209076e-17 -1.26663554 0.505622625
v 0.171341538 -1.32258964 0.621406972
v -7.78229321e-17 -1.32730436 0.635472417
v 0.197970465 -1.36059606 0.699464738
v -8.99223941e-17 -1.37176549 0.734272063
v 0.224712253 -1.38649964 0.760019004
v -9.94343491e-17 -1.40352535 0.811943054
v 0.241601691 -1.37595487 0.811315894
v -1.07657034e-16 -1.41050577 0.879086375
v 0.223449156 -1.31217396 0.803119361
v -1.05387575e-16 -1.33439136 0.860554814
v 0.197121948 -1.24445856 0.769093156
v -9.94299948e-17 -1.26093793 0.81190753
v 0.168863863 -1.17151117 0.720882356
v -9.20146449e-17 -1.18645024 0.751356602
v 0.148831293 -1.11218011 0.690546751
v -8.75290562e-17 -1.12793803 0.714729011
v 0.140703171 -1.05499279 0.703076363
v -8.92911693e-17 -1.07476771 0.729117751
v 0.140569478 -1.00204623 0.744459033
v -9.47500319e-17 -1.01648211 0.773692727
v 0.134518385 -0.908074975 0.797036409
v -1.00492465e-16 -0.923254371 0.820583224
v 0.117298543 -0.773899257 0.847546339
v -1.06421689e-16 -0.788590372 0.868999064
v 0.099727571 -0.637623966 0.906698942
v -1.1422103e-16 -0.651290655 0.932685494
v 0.0977823362 -0.54903841 0.958591104
v -1.22967532e-16 -0.567806363 1.00410604
v 0.0980534777 -0.479676932 0.989510417
v -1.29005063e-16 -0.499437004 1.05340624
v 0.178625047 -0.521327674 0.891327262
v 0.165656805 -0.45009926 0.915159881
v 0.250697792 -0.478050321 0.814474225
v 0.225882977 -0.406380445 0.838130414
v 0.163588583 -0.372215956 0.827876866
v 0.279770434 -0.344904333 0.765068829
v 0.204608425 -0.330847651 0.739715934
v 0.116451442 -0.354453146 0.700722992
v 0.0923387185 -0.386449933 0.792709589
v -8.44718231e-17 -0.366078466 0.689764798
v -9.57053395e-17 -0.397153407 0.781493425
v -7.40252798e-17 -0.330912501 0.604462266
v -6.55699917e-17 -0.296297193 0.535419643
v 0.113378502 -0.25593856 0.457379103
v -5.37659093e-17 -0.255524784 0.439031959
v 0.119572751 -0.233626097 0.382983029
v -4.58534503e-17 -0.233944118 0.374421835
v 0.114158973 -0.217893839 0.322052717
v -3.82788152e-17 -0.214567631 0.312570244
v 0.113997027 -0.178868443 0.273273587
v -3.24830518e-17 -0.152294457 0.265244246
v 0.120978892 -0.122606449 0.291368276
v -3.54042997e-17 -0.0999582782 0.289098024
v 0.124010578 -0.0980203673 0.348728955
v -4.26791215e-17 -0.0774433687 0.348501474
v 0.124545991 -0.0965449139 0.415349811
v -5.15534857e-17 -0.0788202956 0.420966148
v 0.119777158 -0.112154342 0.518559575
v -6.32010854e-17 -0.0931052789 0.516076028
v -7.71429169e-17 -0.1221193 0.629919708
v 0.197898641 -0.127023876 0.415384948
v 0.255180091 -0.170265466 0.413256824
v 0.261262089 -0.220721513 0.407755554
v 0.195180893 -0.230523527 0.396907657
v 0.311922938 -0.417757243 0.737251639
v 0.361012012 -0.364318609 0.670451641
v 0.343423218 -0.50524044 0.703489542
v 0.403387189 -0.446894795 0.62711364
v 0.441534936 -0.378932506 0.55667913
v 0.38989678 -0.310063869 0.615915537
v 0.450542808 -0.288411647 0.504955351
v 0.398661405 -0.255834967 0.578618348
v 0.340533048 -0.196235985 0.602407277
v 0.496663779 -0.454326063 0.468901545
v 0.458182156 -0.557252467 0.557817459
v 0.496185005 -0.647331893 0.46014148
v 0.52691853 -0.521851063 0.367489964
v 0.496479869 -0.701185644 0.38502872
v 0.53787452 -0.578515649 0.283314556
v 0.516616106 -0.752038121 0.3331213
v 0.58645618 -0.638958573 0.230799809
v 0.628931999 -0.526210845 0.128213018
v 0.65850693 -0.704141974 0.221805319
v 0.710645735 -0.630545497 0.103784412
v 0.738104224 -0.575565934 -0.0252528228
v 0.654051781 -0.458672315 0.0177249946
v 0.733972669 -0.527882814 -0.164916009
v 0.635187328 -0.420714349 -0.107095711
v 0.692345083 -0.488468915 -0.302387595
v 0.594163716 -0.385588765 -0.232640818
v 0.541354001 -0.252515733 -0.170765609
v 0.521370173 -0.351126611 -0.35354647
v 0.474492967 -0.229912281 -0.286791831
v 0.455698133 -0.0976418331 -0.238885075
v 0.388356626 -0.19989866 -0.395897388
v 0.384591967 -0.0778419003 -0.332054317
v 0.28154546 -0.161510617 -0.492890805
v 0.279371351 -0.0463499352 -0.414514065
v 0.423087418 -0.314597517 -0.469393253
v 0.303783268 -0.276289701 -0.572872996
v 0.482338607 -0.414908975 -0.552922904
v 0.338722825 -0.389747232 -0.653347373
v 0.5559237 -0.49108538 -0.65291512
v 0.38665837 -0.481351525 -0.755397201
v 0.611034274 -0.576247215 -0.740112364
v 0.42051807 -0.566514969 -0.851602316
v 0.640368044 -0.652000606 -0.79146713
v 0.431130797 -0.641776383 -0.903682947
v 0.647900939 -0.718186855 -0.805085838
v 0.428026438 -0.711046636 -0.909494996
v 0.623371959 -0.758580446 -0.763327122
v 0.412257701 -0.755916834 -0.857958615
v 0.587836564 -0.781333983 -0.700882733
v 0.389974266 -0.779206216 -0.783980131
v 0.548022866 -0.807448864 -0.623292208
v 0.36227715 -0.806656361 -0.686871409
v 0.491747379 -0.845783353 -0.510068834
v 0.329077303 -0.84695977 -0.549783766
v 0.448599428 -0.892510772 -0.370103449
v 0.3054052 -0.895852804 -0.391269952
v 0.434383184 -0.944130063 -0.216811448
v 0.292958975 -0.947704792 -0.235286698
v 0.425769836 -0.995705009 -0.0748465955
v 0.283424348 -1.00106096 -0.088032268
v 0.413114548 -1.04932749 0.0594672821
v 0.27480793 -1.05789304 0.0559870079
v 0.271213531 -1.12103176 0.203422844
v 0.279792666 -1.18914604 0.351975769
v 0.313364893 -1.24930537 0.475895196
v 0.523702443 -1.23839915 0.475662738
v 0.356982768 -1.28912437 0.553855777
v 0.564977348 -1.26025677 0.521799445
v 0.394402087 -1.31973946 0.611680031
v 0.605579317 -1.27286899 0.570464969
v 0.429457843 -1.34272158 0.665700316
v 0.607340872 -1.22949636 0.604892731
v 0.443134189 -1.31346262 0.709875882
v 0.577620268 -1.17114031 0.604947209
v 0.418185353 -1.25212765 0.70844382
v 0.5230636 -1.10178864 0.587880671
v 0.376026124 -1.18552864 0.685705841
v 0.457487583 -1.03797328 0.561836421
v 0.325130463 -1.11693251 0.651794374
v 0.402403772 -0.993012428 0.543487847
v 0.286797106 -1.06512344 0.630797863
v 0.369156808 -0.943045139 0.556719959
v 0.268440962 -1.01103628 0.646155715
v 0.371810436 -0.892368197 0.604450285
v 0.269319624 -0.96027565 0.689645231
v 0.3621144 -0.819262266 0.663470328
v 0.259711325 -0.873038888 0.747016013
v 0.320032418 -0.690912127 0.730453372
v 0.225748062 -0.739855468 0.800460696
v 0.272120565 -0.56089741 0.780400276
v 0.190694466 -0.605152905 0.852177024
v 0.397951037 -0.629868865 0.64854598
v 0.441137791 -0.746284962 0.563080072
v 0.444506794 -0.806313276 0.498381674
v 0.443179101 -0.856847227 0.445927531
v 0.498357892 -0.899509251 0.444108337
v 0.58283937 -0.797954559 0.336564183
v 0.565903962 -0.942708611 0.461206585
v 0.666692913 -0.851345599 0.355967909
v 0.761596799 -0.77490443 0.24058184
v 0.757312655 -0.920043468 0.377332121
v 0.856083393 -0.84355557 0.254550517
v 0.929402649 -0.777486265 0.110694081
v 0.827981234 -0.707694948 0.108432494
v 0.966728806 -0.720922291 -0.0541451126
v 0.861790001 -0.651500404 -0.0408230089
v 0.962757945 -0.674975157 -0.234946817
v 0.859030843 -0.603873372 -0.20387581
v 0.910878956 -0.640459836 -0.429154962
v 0.814237058 -0.566016138 -0.371312559
v 0.778159082 -0.590086341 -0.599529266
v 0.698536158 -0.515431523 -0.518276155
v 0.60255003 -0.446524352 -0.431636065
v 0.964601398 -0.703388989 -0.469062507
v 0.814730763 -0.661040545 -0.645805597
v 0.98881644 -0.764766753 -0.489458233
v 0.824630082 -0.728021145 -0.661553442
v 0.95366472 -0.813063562 -0.469121486
v 0.797773063 -0.777412176 -0.627593875
v 0.876840711 -0.836294532 -0.419809252
v 0.757515907 -0.800275087 -0.574766517
v 0.955348134 -0.873091459 -0.255917281
v 1.02391195 -0.856912494 -0.271816581
v 1.03454602 -0.899472654 -0.0955088586
v 0.960165501 -0.915679574 -0.101391077
v 1.05749369 -0.797071338 -0.272583544
v 1.06630731 -0.843642771 -0.0823315829
v 1.03157592 -0.898692012 0.0937150791
v 1.00783491 -0.953227997 0.0685362071
v 1.02552986 -0.734815955 -0.257612586
v 1.03232062 -0.781598687 -0.0671425015
v 0.993519068 -0.837038279 0.106093332
v 0.919040442 -0.90326798 0.25688225
v 0.960232854 -0.964006424 0.249026865
v 0.863215566 -1.0414021 0.381634563
v 0.866320968 -1.09290469 0.349972248
v 0.949984789 -1.01757383 0.217595086
v 0.821050525 -0.982943892 0.385558099
v 0.709657192 -1.07610655 0.49818787
v 0.747724295 -1.13439524 0.497699082
v 0.64670372 -1.00848174 0.484838843
v 0.753436625 -1.18227184 0.468256235
v 0.71033293 -1.17990732 0.422878236
v 0.814134419 -1.09695935 0.307460845
v 0.663541794 -1.16893828 0.383892179
v 0.755703509 -1.09454548 0.271357924
v 0.815476358 -1.03070247 0.149245873
v 0.888442814 -1.02717769 0.181413546
v 0.854304373 -0.974994898 0.0201863926
v 0.937455654 -0.967016459 0.0440926999
v 0.877862811 -0.926927686 -0.110717237
v 0.724661231 -0.983747125 -0.0141738877
v 0.741666019 -0.938973427 -0.135481328
v 0.573594928 -0.990532994 -0.0491431653
v 0.581218421 -0.944118142 -0.176788449
v 0.70267272 -1.03495204 0.110106707
v 0.560626924 -1.04072845 0.0760357007
v 0.433436036 0.472688109 -0.301930845
v 0.581888437 0.53350383 -0.358911306
v 0.565694988 0.475966662 -0.380378604
v 0.574200273 0.38722983 -0.394837499
v 0.626647174 0.282108128 -0.389114976
v 0.786574185 0.306170225 -0.42952776
v 0.687802076 0.216894209 -0.355869055
v 0.837775707 0.290328085 -0.395751148
v 0.743354201 0.183809459 -0.31376031
v 0.609093666 0.111907639 -0.237103283
v 0.738104403 0.216788799 -0.285350561
v 0.618931293 0.146604776 -0.190268055
v 0.576301157 0.22660777 -0.220923781
v 0.813673735 0.317229867 -0.374456078
v 0.882791162 0.377096176 -0.43552807
v 0.842855573 0.39977935 -0.420403272
v 0.808255553 0.480910361 -0.421989441
v 0.818332493 0.531065166 -0.4313097
v 0.734286427 0.551899493 -0.383241504
v 0.736756384 0.50245142 -0.37257874
v 0.610801101 0.558129668 -0.314767897
v 0.626972675 0.510982096 -0.295630187
v 0.705009699 0.533778787 -0.424207509
v 0.804133832 0.532682657 -0.472252846
v 0.856202662 0.386246234 -0.474196702
v -0.245846778 -0.170623899 0.309433579
v -0.928659141 0.50180614 -0.487551987
v -0.939851701 0.479428023 -0.461518526
v -0.243738443 -0.205477089 0.302110583
v -0.790725172 0.445568442 -0.504004061
v -0.0430811271 -0.422796458 0.922089934
v -0.152920201 -0.349670053 1.16357982
v -0.468445778 0.0466572605 -0.106286541
v -0.255524695 -0.182517737 0.620841682
v -0.527299941 -1.13604462 0.28233692
v -0.231942758 -0.258910239 0.579840064
v -0.0711226687 -0.110483401 1.29562473
v -0.533283651 -0.205112964 0.184829786
v -0.347499609 0.186713487 -0.299560428
v -0.752903223 -0.871567369 -0.344178319
v -0.707290947 0.382421464 -0.354362309
v -0.252833098 -0.217269152 0.347841442
v -0.250287563 -0.163322449 0.354241818
v -0.20073092 -0.128172725 0.350484341
v -0.200101927 -0.147349566 0.294263989
v -0.19175978 -0.19659999 0.285104126
v -0.867614806 0.516710877 -0.495879859
v -0.876505911 0.502134681 -0.447516024
v -0.913317263 0.434078485 -0.445712239
v -0.896506071 0.440973848 -0.493982077
v -0.84809798 0.465958416 -0.511113763
v -0.866143823 0.458243996 -0.438860536
v -0.189756498 -0.22055015 0.337363809
v -0.793642998 0.490446001 -0.496535122
v -0.822327733 0.412907124 -0.497465849
v -0.693996072 0.414948523 -0.460604787
v -0.689877152 0.478972375 -0.447427005
v -0.731929362 0.346547365 -0.453676671
v -0.063228488 -0.408234328 0.870185673
v -0.0691215694 -0.430563122 0.966806054
v -0.119464532 -0.403462082 0.906762838
v -0.16254662 -0.337896913 1.09692514
v -0.209716558 -0.289683461 1.12093234
v -0.185990229 -0.310161293 1.20354867
v -0.105832294 -0.3185817 1.24035621
v -0.0906607062 -0.359303951 1.17742801
v -0.0911099985 -0.347517878 1.08243227
v -0.458685458 0.015531145 -0.209413618
v -0.509844363 0.0743842274 -0.211554319
v -0.516948283 0.11029201 -0.148710996
v -0.477994919 0.201643735 -0.157007039
v -0.417733073 0.169773996 -0.0650063008
v -0.427104443 0.15074411 0.0644350648
v -0.483102739 0.0146291479 0.0405583046
v -0.532818019 -0.124789543 0.00868913997
v -0.504558086 -0.10305021 -0.128843576
v -0.352196038 -0.140706182 0.664955974
v -0.307275921 -0.160627067 0.782061875
v -0.245725468 -0.207197547 0.745583296
v -0.146197632 -0.186126292 0.730951905
v -0.134037659 -0.144613862 0.626380086
v -0.209410593 -0.147560239 0.512399256
v -0.255014896 -0.180437177 0.496683598
v -0.28086549 -0.198524803 0.574934423
v -0.597118258 -1.15279377 0.333860993
v -0.481122643 -1.21135855 0.419882596
v -0.425492704 -1.16141856 0.313301682
v -0.404376179 -1.10786617 0.194561765
v -0.550463319 -1.09293067 0.195738956
v -0.663363218 -1.09246826 0.230147198
v -0.333693177 -0.260214955 0.64486748
v -0.344113946 -0.235955298 0.617734909
v -0.275330603 -0.224590927 0.577211499
v -0.222074926 -0.294363171 0.660790861
v -0.313630879 -0.295672417 0.696196198
v -0.129630744 -0.283617795 0.535517335
v -0.132799059 -0.31983915 0.617144763
v -0.25149563 -0.224273592 0.489292741
v -0.200627401 -0.24532637 0.478544295
v -0.247935653 0.495398134 0.0015453815
v -0.186989725 0.504395843 -0.0603449643
v -0.238126904 0.423586249 0.104619771
v -0.331831247 0.425506473 0.00612414442
v -0.208374918 0.414797276 0.23573342
v -0.088981986 -0.165072292 1.2724185
v -0.163167223 -0.145814896 1.25379825
v -0.106107101 -0.0675841644 1.28279388
v -0.510817647 -0.0127923414 0.193704486
v -0.515105128 -0.0349994823 0.345122099
v -0.511221647 -0.186639875 0.353913546
v -0.596105814 -0.339406818 0.0899777263
v -0.58445555 -0.27409035 -0.0448345803
v -0.50900352 -0.326657385 0.396068424
v -0.5332219 -0.372658998 0.284062088
v -0.569118559 -0.442210823 0.190023273
v -0.315995693 0.324062496 -0.278941125
v -0.449659258 0.360255003 -0.327248782
v -0.497135818 0.244542092 -0.33246544
v -0.56402415 0.164426818 -0.303709894
v -0.458419561 0.110973582 -0.275155127
v -0.407399327 0.0291247144 -0.282592148
v -0.299883753 0.0656459108 -0.345512897
v -0.164846748 0.199128717 -0.327054352
v -0.163212642 0.307374805 -0.266651571
v -0.154946685 0.0912500694 -0.389860749
v -0.648923695 -0.857427299 -0.423973083
v -0.713326156 -0.822490931 -0.517151058
v -0.839713633 -0.852732182 -0.375629842
v -0.87974298 -0.886733472 -0.243061334
v -0.752060652 -0.900924206 -0.249215797
v -0.59774667 -0.900031209 -0.304644138
v -0.727146566 0.444718987 -0.372041017
v -0.630779028 0.445322454 -0.302497476
v -0.645627022 0.354096144 -0.307917058
v -0.685005367 0.273032248 -0.302582651
v -0.75161171 0.348841846 -0.371585697
v -0.790925801 0.423657179 -0.411378533
v -0.408750802 -0.104603432 0.588806212
v -0.395112813 -0.19690755 0.562439263
v -0.458100736 -0.18724528 0.481866777
v -0.472465187 -0.0629918203 0.483052254
v -0.434175789 0.083400175 0.484377891
v -0.383693814 0.031958133 0.598341525
v -0.343144745 -0.017363824 0.705501556
v -0.293487906 0.170294166 0.600757658
v -0.266558409 0.111709878 0.721203744
v -0.243004113 0.050533969 0.844598591
v -0.304389596 -0.0705803707 0.815833688
v -0.216621354 -0.015368633 0.968621552
v -0.26458931 -0.127096176 0.934379697
v -0.261928201 -0.207661331 0.900955796
v -0.209305823 -0.252150983 0.866135716
v -0.233311027 -0.181000441 1.05331528
v -0.225834608 -0.257082582 1.02047193
v -0.180327669 -0.304438919 0.987823963
v -0.105462566 -0.298325777 0.968100548
v -0.122936413 -0.237484008 0.848815143
v -0.113016866 -0.24780032 1.25880277
v -0.193480477 -0.236752093 1.2256999
v -0.218238503 -0.214293599 1.15174389
v -0.180563107 -0.119746529 1.18076587
v -0.189457819 -0.0791876242 1.09003687
v -0.111951008 0.0139002278 1.12018752
v -0.112233497 -0.0268549547 1.21071541
v -0.127710238 0.0807907581 0.994585395
v -0.140940472 0.148549646 0.867959976
v -0.152674749 0.212045491 0.742937744
v -0.169900268 0.285181701 0.626032591
v -0.190247118 0.354233414 0.505174875
v -0.201927111 0.396232784 0.371516526
v -0.344674259 0.262675226 0.354042232
v -0.351586878 0.278969944 0.21838133
v -0.325885594 0.225434422 0.482484698
v -0.466606498 0.122638404 0.352677107
v -0.454748929 0.140997827 0.210095078
v -0.36122331 0.294249505 0.0867412537
v -0.363958061 0.300820053 -0.0366327316
v -0.421394289 0.321274012 -0.164600179
v -0.414564371 0.449328989 -0.111367926
v -0.532515883 0.33230859 -0.237412572
v -0.514996111 0.436437815 -0.221504256
v -0.507360816 0.513784409 -0.206524059
v -0.395510197 0.509450793 -0.0937678516
v -0.478766024 0.565339267 -0.23412317
v -0.336434692 0.547699511 -0.13075085
v -0.445135474 0.53654176 -0.275834769
v -0.305554658 0.517341733 -0.183590114
v -0.165703148 0.480035603 -0.11632967
v -0.301410437 0.44661662 -0.232802942
v -0.158369422 0.41415745 -0.200486436
v -0.148179173 -0.0156577528 -0.471929908
v -0.149623871 -0.12731114 -0.562480032
v -0.160795286 -0.246691555 -0.648552656
v -0.17574127 -0.372668236 -0.7206375
v -0.197210848 -0.477218658 -0.816396058
v -0.209971875 -0.572903633 -0.910346031
v -0.210489437 -0.651088536 -0.949890137
v -0.20882836 -0.722394705 -0.945652604
v -0.202010885 -0.767876267 -0.890198231
v -0.19049257 -0.789085031 -0.810794294
v -0.177836403 -0.815039992 -0.701585352
v -0.164459616 -0.854715466 -0.552798629
v -0.15442726 -0.900926948 -0.39704904
v -0.147441834 -0.951295614 -0.243148431
v -0.141924545 -1.00518882 -0.0931410342
v -0.137766838 -1.06338561 0.0555781536
v -0.136409849 -1.12714839 0.205780953
v -0.140946046 -1.19538283 0.356770426
v -0.151915878 -1.26468956 0.502174973
v -0.171341538 -1.32258964 0.621406972
v -0.197970465 -1.36059606 0.699464738
v -0.224712253 -1.38649964 0.760019004
v -0.241601691 -1.37595487 0.811315894
v -0.223449156 -1.31217396 0.803119361
v -0.197121948 -1.24445856 0.769093156
v -0.168863863 -1.17151117 0.720882356
v -0.148831293 -1.11218011 0.690546751
v -0.140703171 -1.05499279 0.703076363
v -0.140569478 -1.00204623 0.744459033
v -0.134518385 -0.908074975 0.797036409
v -0.117298543 -0.773899257 0.847546339
v -0.099727571 -0.637623966 0.906698942
v -0.0977823362 -0.54903841 0.958591104
v -0.0980534777 -0.479676932 0.989510417
v -0.178625047 -0.521327674 0.891327262
v -0.165656805 -0.45009926 0.915159881
v -0.250697792 -0.478050321 0.814474225
v -0.225882977 -0.406380445 0.838130414
v -0.163588583 -0.372215956 0.827876866
v -0.279770434 -0.344904333 0.765068829
v -0.204608425 -0.330847651 0.739715934
v -0.116451442 -0.354453146 0.700722992
v -0.0923387185 -0.386449933 0.792709589
v -0.113378502 -0.25593856 0.457379103
v -0.119572751 -0.233626097 0.382983029
v -0.114158973 -0.217893839 0.322052717
v -0.113997027 -0.178868443 0.273273587
v -0.120978892 -0.122606449 0.291368276
v -0.124010578 -0.0980203673 0.348728955
v -0.124545991 -0.0965449139 0.415349811
v -0.119777158 -0.112154342 0.518559575
v -0.197898641 -0.127023876 0.415384948
v -0.255180091 -0.170265466 0.413256824
v -0.261262089 -0.220721513 0.407755554
v -0.195180893 -0.230523527 0.396907657
v -0.311922938 -0.417757243 0.737251639
v -0.361012012 -0.364318609 0.670451641
v -0.343423218 -0.50524044 0.703489542
v -0.403387189 -0.446894795 0.62711364
v -0.441534936 -0.378932506 0.55667913
v -0.38989678 -0.310063869 0.615915537
v -0.450542808 -0.288411647 0.504955351
v -0.398661405 -0.255834967 0.578618348
v -0.340533048 -0.196235985 0.602407277
v -0.496663779 -0.454326063 0.468901545
v -0.458182156 -0.557252467 0.557817459
v -0.496185005 -0.647331893 0.46014148
v -0.52691853 -0.521851063 0.367489964
v -0.496479869 -0.701185644 0.38502872
v -0.53787452 -0.578515649 0.283314556
v -0.516616106 -0.752038121 0.3331213
v -0.58645618 -0.638958573 0.230799809
v -0.628931999 -0.526210845 0.128213018
v -0.65850693 -0.704141974 0.221805319
v -0.710645735 -0.630545497 0.103784412
v -0.738104224 -0.575565934 -0.0252528228
v -0.654051781 -0.458672315 0.0177249946
v -0.733972669 -0.527882814 -0.164916009
v -0.635187328 -0.420714349 -0.107095711
v -0.692345083 -0.488468915 -0.302387595
v -0.594163716 -0.385588765 -0.232640818
v -0.541354001 -0.252515733 -0.170765609
v -0.521370173 -0.351126611 -0.35354647
v -0.474492967 -0.229912281 -0.286791831
v -0.455698133 -0.0976418331 -0.238885075
v -0.388356626 -0.19989866 -0.395897388
v -0.384591967 -0.0778419003 -0.332054317
v -0.28154546 -0.161510617 -0.492890805
v -0.279371351 -0.0463499352 -0.414514065
v -0.423087418 -0.314597517 -0.469393253
v -0.303783268 -0.276289701 -0.572872996
v -0.482338607 -0.414908975 -0.552922904
v -0.338722825 -0.389747232 -0.653347373
v -0.5559237 -0.49108538 -0.65291512
v -0.38665837 -0.481351525 -0.755397201
v -0.611034274 -0.576247215 -0.740112364
v -0.42051807 -0.566514969 -0.851602316
v -0.640368044 -0.652000606 -0.79146713
v -0.431130797 -0.641776383 -0.903682947
v -0.647900939 -0.718186855 -0.805085838
v -0.428026438 -0.711046636 -0.909494996
v -0.623371959 -0.758580446 -0.763327122
v -0.412257701 -0.755916834 -0.857958615
v -0.587836564 -0.781333983 -0.700882733
v -0.389974266 -0.779206216 -0.783980131
v -0.548022866 -0.807448864 -0.623292208
v -0.36227715 -0.806656361 -0.686871409
v -0.491747379 -0.845783353 -0.510068834
v -0.329077303 -0.84695977 -0.549783766
v -0.448599428 -0.892510772 -0.370103449